{"cell_type":{"0bcb1bbf":"code","8c372797":"code","16fe86ec":"code","ab00f4c0":"code","c5d157ec":"code","38287945":"code","17994a48":"code","58d1bb1e":"code","05f2975d":"code","c8b1b423":"code","31be48a7":"markdown","75ec622d":"markdown"},"source":{"0bcb1bbf":"import numpy as np\nimport pandas as pd\nimport os\nfor dirname, _, filenames in os.walk('\/kaggle\/input'):\n    for filename in filenames:\n        print(os.path.join(dirname, filename))","8c372797":"melting = pd.read_csv('\/kaggle\/input\/tempurature-data-elements\/Elements melting point .csv', index_col='Atomic number')\nboiling = pd.read_csv('\/kaggle\/input\/tempurature-data-elements\/Elements boiling points.csv', index_col='Atomic number')\nboiling.drop(['Name chemical element', 'Symbol'], axis=1, inplace=True)\nmass = pd.read_csv('\/kaggle\/input\/tempurature-data-elements\/Atomic mass.csv', index_col='Atomic number')\nmass.drop(['Name chemical element', 'Symbol'], axis=1, inplace=True)","16fe86ec":"melting = melting.merge(boiling, left_index=True, right_index=True)\nperiodic = melting.merge(mass, left_index=True, right_index=True)\nperiodic.columns\nperiodic = periodic[[ 'Name chemical element', 'Symbol','Melting- point (C)', \n       'Boiling- point', 'Atomic Mass']]","ab00f4c0":"#removes an error in the dataset, will have it updated out later\nperiodic = periodic.loc[periodic['Boiling- point'] != 760]","c5d157ec":"# Below we have the Correlation coeficient of Atomic Mass compaired to the other two features\nperiodic.corr()['Atomic Mass']","38287945":"import seaborn as sns\nimport matplotlib.pyplot as plt","17994a48":"fig, ax =plt.subplots(1,2, figsize=(20, 10))\nsns.scatterplot(x=periodic['Boiling- point'], y=periodic.index, ax=ax[0])\nsns.scatterplot(y=periodic['Boiling- point'], x=periodic['Atomic Mass'], ax=ax[1]);","58d1bb1e":"print('Boiling point by Melting point, color indicating atomic mass')\nfig, ax =plt.subplots(1,2, figsize=(20, 10))\nsns.scatterplot(periodic['Boiling- point'], periodic['Melting- point (C)'],hue=periodic.index, ax=ax[0])\nsns.scatterplot(periodic['Boiling- point'], periodic['Melting- point (C)'],hue=periodic['Atomic Mass'], ax=ax[1]);","05f2975d":"# %matplotlib notebook\n\nimport matplotlib.pyplot as plt\nfrom mpl_toolkits.mplot3d import axes3d\n\nimport seaborn as sns, numpy as np, pandas as pd, random\nimport matplotlib.pyplot as plt\nfrom mpl_toolkits.mplot3d import Axes3D\n# sns.set_style(\"whitegrid\", {'axes.grid' : False})\n\nfig = plt.figure(figsize=(10,10))\n\nax = Axes3D(fig)\n\n\n\nx = periodic['Boiling- point']\ny = periodic['Melting- point (C)']\nz = hue=periodic['Atomic Mass']\n\n\ng = ax.scatter(x, y, z, c=x, marker='o', depthshade=False, cmap='Paired')\nax.set_xlabel('Boiling point')\nax.set_ylabel('Melting point')\nax.set_zlabel('Atomic Mass')\n\n# produce a legend with the unique colors from the scatter\nlegend = ax.legend(*g.legend_elements(), loc=\"lower center\", title=\"Boiling Point\", borderaxespad=-10, ncol=4)\nax.add_artist(legend)\n\n# plt.show()\n\nfrom matplotlib import animation\n\ndef rotate(angle):\n     ax.view_init(azim=angle)\n\nangle = 1\nani = animation.FuncAnimation(fig, rotate, frames=np.arange(0, 360, angle), interval=1)\nani.save('rotating_chem_plot.gif', writer=animation.PillowWriter(fps=25))","c8b1b423":"import os\nfrom IPython.display import Image\nImage(filename=\".\/rotating_chem_plot.gif\")","31be48a7":"# Atomic Mass and Boiling Point\/Melting Point\n\nThe goal of this notebook is simple. I wanted to see plot the relationship between melting point, boiling point, and atomic mass. ","75ec622d":"While we can viualize pairs of features or use hue to see patterns, below I chose to also implement a 3-d plot, and export it as a gif. The code below is extremely influenced by the two links below\n\nhttp:\/\/blog.mahler83.net\/2019\/10\/rotating-3d-t-sne-animated-gif-scatterplot-with-matplotlib\/\nhttps:\/\/stackoverflow.com\/questions\/52285104\/3d-scatterplots-in-python-with-hue-colormap-and-legend "}}